! Touchstone file exported from HFSS 2021.1.0
!        File:           C:/Users/deng/Documents/Ansoft/Wilkinson_v1.aedt
!        Generated:      5:33:42 %x4E0B%x5348  7%x6708 20, 2026
!        Design:         Wilkinson_2p4GHz
!        Project:        Wilkinson_v1
!        Setup:          Setup1
!        Solution:       Sweep
!
# GHz S MA R 50.000000
! Terminal data exported
! Port[1] = 1
! Port[2] = 2
! Port[3] = 3
1                              0.424745745935751 86.6050105698129 0.624915616967651 -123.103169002719 0.628928401839653 -125.143091640638 
                               0.624915616967651 -123.103169002719 0.289484096889258 41.2321336710427 0.691779090072468 -149.688705918358 
                               0.628928401839654 -125.143091640638 0.69177909007247 -149.688705918358 0.278598426986133 37.3923751361804 
! Gamma         0                0                0                0                0                0                
! Port Impedance         50               0                50               0                50               0                
1.01                           0.424062933009847 85.2837309645295 0.625082574529592 -124.298682183517 0.628828424424957 -126.379191176043 
                               0.625082574529587 -124.298682183517 0.288361097608447 38.8722038324103 0.691552721977088 -151.32051670234 
                               0.628828424424958 -126.379191176043 0.691552721977088 -151.32051670234 0.278035497189402 34.896848139684  
! Gamma         0                0                0                0                0                0                
! Port Impedance         50               0                50               0                50               0                
1.02                           0.42332795073432 83.956189060572  0.625273250536636 -125.495051038743 0.628735728926098 -127.615418307329 
                               0.625273250536628 -125.495051038742 0.287300174447401 36.490899555486  0.691275139886527 -152.954840166116 
                               0.628735728926098 -127.615418307329 0.691275139886525 -152.954840166116 0.277572021390822 32.3823260644328 
! Gamma         0                0                0                0                0                0                
! Port Impedance         50               0                50               0                50               0                
1.03                           0.422540788016908 82.6224038354592 0.625487346103313 -126.69236170139 0.628650415209757 -128.851795999425 
                               0.625487346103301 -126.692361701389 0.286305580979451 34.089116829132  0.690945365484278 -154.591554744407 
                               0.628650415209758 -128.851795999425 0.690945365484274 -154.591554744407 0.27721208394463 29.850326352562  
! Gamma         0                0                0                0                0                0                
! Port Impedance         50               0                50               0                50               0                
1.04                           0.421701452800356 81.2823925127395 0.625724533658201 -127.890697883233 0.628572579617342 -130.08834749531 
                               0.625724533658187 -127.890697883232 0.285381476644015 31.667839510148  0.69056249120689 -156.230535189236 
                               0.628572579617343 -130.08834749531 0.690562491206885 -156.230535189237 0.276959497961868 27.3024644234288 
! Gamma         0                0                0                0                0                0                
! Port Impedance         50               0                50               0                50               0                
1.05                           0.420809971456984 79.936170594785  0.625984458749856 -129.090140812438 0.628502314935004 -131.325096309687 
                               0.62598445874984 -129.090140812436 0.284531900718755 29.228139088807  0.690125683065238 -157.871652769492 
                               0.628502314935005 -131.325096309687 0.690125683065231 -157.871652769493 0.276817773668985 24.7404467425229 
! Gamma         0                0                0                0                0                0                
! Port Impedance         50               0                50               0                50               0                
1.06                           0.419866388187199 78.583751896995  0.626266741808694 -130.290769182218 0.628439710363991 -132.562066222723 
                               0.626266741808676 -130.290769182217 0.283760746008763 26.7711735696813 0.689634183289135 -159.514775482444 
                               0.628439710363992 -132.562066222723 0.689634183289126 -159.514775482445 0.276790088493602 22.1660624841279 
! Gamma         0                0                0                0                0                0                
! Port Impedance         50               0                50               0                50               0                
1.07                           0.418870764422473 77.2251485832864 0.626570979861988 -131.492659109879 0.628384851491233 -133.799281273869 
                               0.626570979861969 -131.492659109877 0.283071732556502 24.2981854096017 0.689087312777849 -161.159768276746 
                               0.628384851491234 -133.799281273869 0.689087312777839 -161.159768276746 0.276879259385956 19.5811738643728 
! Gamma         0                0                0                0                0                0                
! Port Impedance         50               0                50               0                50               0                
1.08                           0.417823178233231 75.860371202748  0.62689674819972 -132.695884105597 0.628337820260051 -135.036765755755 
                               0.6268967481997  -132.695884105595 0.282468381699181 21.8104984700884 0.688484473339887 -162.806493286378 
                               0.628337820260052 -135.036765755755 0.688484473339876 -162.806493286378 0.277087717863636 16.9877052603971 
! Gamma         0                0                0                0                0                0                
! Port Impedance         50               0                50               0                50               0                
1.09                           0.416723723742068 74.4894287273407 0.627243601989604 -133.900515050312 0.628298694940915 -136.274544208169 
                               0.627243601989584 -133.90051505031 0.2819539908175  19.3095139600038 0.687825149706376 -164.454810074901 
                               0.628298694940915 -136.274544208169 0.687825149706364 -164.454810074902 0.277417488231224 14.3876312687999 
! Gamma         0                0                0                0                0                0                
! Port Impedance         50               0                50               0                50               0                
1.1                            0.415572510542641 73.1123285905232 0.627611077840071 -135.106620182118 0.628267550102129 -137.512641412119 
                               0.627611077840051 -135.106620182116 0.281531609129821 16.7967053650939 0.687108911303524 -166.104575889314 
                               0.62826755010213 -137.512641412119 0.687108911303511 -166.104575889315 0.277870169375765 11.7829638905511 
! Gamma         0                0                0                0                0                0                
! Port Impedance         50               0                50               0                50               0                
1.11                           0.414369663124538 71.7290767266838 0.627998695310456 -136.314265090547 0.628244456580369 -138.751082383985 
                               0.627998695310436 -136.314265090545 0.281204014888121 14.2736123839626 0.686335413770946 -167.755645922736 
                               0.62824445658037 -138.751082383985 0.686335413770932 -167.755645922736 0.278446920474944 9.17573905841763 
! Gamma         0                0                0                0                0                0                
! Port Impedance         50               0                50               0                50               0                
1.12                           0.413115320304363 70.3396776112587 0.628405958368005 -137.523512718193 0.628229481450956 -139.989892369754 
                               0.628405958367985 -137.523512718191 0.280973694325545 11.7418339141245 0.68550440021406 -169.407873585067 
                               0.628229481450957 -139.989892369754 0.685504400214046 -169.407873585067 0.279148450879279 6.56800274515124 
! Gamma         0                0                0                0                0                0                
! Port Impedance         50               0                50               0                50               0                
1.13                           0.411809634663233 68.9441343014175 0.628832356791652 -138.734423369114 0.628222687997784 -141.229096839357 
                               0.628832356791632 -138.734423369111 0.280842822689734 9.20302015624871 0.684615702180362 -171.061110780718 
                               0.628222687997785 -141.229096839357 0.684615702180348 -171.061110780719 0.279975014345196 3.96179690502185 
! Gamma         0                0                0                0                0                0                
! Port Impedance         50               0                50               0                50               0                
1.14                           0.410452771990821 67.5424484771935 0.629277367522796 -139.947054723496 0.628224135682805 -142.468721481087 
                               0.629277367522777 -139.947054723494 0.280813247671125 6.65886392860302 0.683669240351042 -172.715208192441 
                               0.628224135682806 -142.468721481087 0.683669240351028 -172.715208192441 0.280926407705541 1.35914550696649 
! Gamma         0                0                0                0                0                0                
! Port Impedance         50               0                50               0                50               0                
1.15                           0.409044910736037 66.134620482937  0.629740455963564 -141.161461858086 0.628233880114972 -143.708792196123 
                               0.629740455963546 -141.161461858083 0.280886475501502 4.11109130601677 0.682665024941233 -174.370015570241 
                               0.628233880114973 -143.708792196123 0.682665024941219 -174.370015570242 0.282001973971313 -1.23795908566408 
! Gamma         0                0                0                0                0                0                
! Port Impedance         50               0                50               0                50               0                
1.16                           0.407586241464371 64.7206493689652 0.630221077223234 -142.37769727191 0.628251973018547 -144.949335093138 
                               0.630221077223217 -142.377697271907 0.281063659955811 1.5614517174371  0.681603155804021 -176.025382024322 
                               0.628251973018548 -144.949335093138 0.681603155804006 -176.025382024323 0.283200609766644 -3.82756914584454 
! Gamma         0                0                0                0                0                0                
! Port Impedance         50               0                50               0                50               0                
1.17                           0.406076966321889 63.3005329332831 0.630718677313656 -143.595810916844 0.628278462200688 -146.190376483018 
                               0.630718677313639 -143.595810916841 0.28134559444081 -0.988292347561433 0.680483822235297 -177.681156320954 
                               0.628278462200688 -146.190376483018 0.680483822235282 -177.681156320954 0.284520776911755 -6.4077938013647 
! Gamma         0                0                0                0                0                0                
! Port Impedance         50               0                50               0                50               0                
1.18                           0.404517298505822 61.8742677632441 0.631232694294663 -144.815850232612 0.628313391518211 -147.431942873669 
                               0.631232694294647 -144.815850232609 0.281732707298898 -3.53637586090905 0.679307302478511 -179.337187180159 
                               0.628313391518212 -147.431942873669 0.679307302478496 -179.337187180159 0.285960517888842 -8.97681024552856 
! Gamma         0                0                0                0                0                0                
! Port Impedance         50               0                50               0                50               0                
1.19                           0.402907461741621 60.4418492770168 0.631762559370543 -146.037860185811 0.62835680084345 -148.674060964922 
                               0.631762559370529 -146.037860185809 0.282225060396164 -6.08104183719592 0.678073962930364 179.006676425928 
                               0.628356800843451 -148.674060964922 0.678073962930349 179.006676425927 0.287517474856292 -11.5328737772875 
! Gamma         0                0                0                0                0                0                
! Port Impedance         50               0                50               0                50               0                
1.2                            0.401247689766332 59.0032717647192 0.632307697938735 -147.261883312609 0.628408726029108 -149.916757643546 
                               0.632307697938721 -147.261883312607 0.282822351002379 -8.62055180220109 0.676784257050484 177.350584975173 
                               0.628408726029109 -149.916757643546 0.676784257050469 177.350584975172 0.289188911819361 -14.0743265446913 
! Gamma         0                0                0                0                0                0                
! Port Impedance         50               0                50               0                50               0                
1.21                           0.399538225818085 57.5585284290804 0.632867530591937 -148.487959764746 0.628469198872019 -151.160059978348 
                               0.632867530591924 -148.487959764744 0.28352391690915 -11.1531959804093 0.675438723980088 175.694688099178 
                               0.62846919887202 -151.160059978348 0.675438723980074 175.694688099178 0.290971739521783 -16.5996049043066 
! Gamma         0                0                0                0                0                0                
! Port Impedance         50               0                50               0                50               0                
1.22                           0.397779322131459 56.1076114254796 0.633441474074907 -149.716127358537 0.628538247075732 -152.403995215382 
                               0.633441474074895 -149.716127358534 0.284328744673086 -13.6773030415198 0.674037986876581 174.039134289772 
                               0.628538247075733 -152.403995215382 0.674037986876567 174.039134289771 0.292862542593487 -19.1072453483525 
! Gamma         0                0                0                0                0                0                
! Port Impedance         50               0                50               0                50               0                
1.23                           0.395971239438431 54.6505119012111 0.634028942197162 -150.946421626561 0.62861589421182 -153.648590773245 
                               0.634028942197151 -150.946421626559 0.285235480815268 -16.1912492590661 0.672582750972853 172.384070609378 
                               0.628615894211821 -153.648590773245 0.67258275097284 172.384070609378 0.294857608474545 -21.5958889890833 
! Gamma         0                0                0                0                0                0                
! Port Impedance         50               0                50               0                50               0                
1.24                           0.394114246474602 53.187220033815  0.634629346702861 -152.178875871763 0.628702159679836 -154.893874238482 
                               0.634629346702851 -152.178875871761 0.286242445758475 -18.6934669514703 0.671073801371858 170.729642406366 
                               0.628702159679837 -154.893874238482 0.671073801371844 170.729642406365 0.296952957634087 -24.064284624977 
! Gamma         0                0                0                0                0                0                
! Port Impedance         50               0                50               0                50               0                
1.25                           0.392208619490339 51.7177250683071 0.635242098099083 -153.413521223703 0.628797058665822 -156.139873361079 
                               0.635242098099074 -153.413521223701 0.287347650240892 -21.1824520963412 0.669512000588682 169.075993036429 
                               0.628797058665823 -156.139873361079 0.669512000588669 169.075993036429 0.299144374613965 -26.511290444412 
! Gamma         0                0                0                0                0                0                
! Port Impedance         50               0                50               0                50               0                
1.26                           0.390254641766454 50.2420153531337 0.635866606443718 -154.650386696713 0.628900602099282 -157.38661605005 
                               0.63586660644371 -154.650386696711 0.288548813910433 -23.6567710316639 0.667898285853886 167.423263591034 
                               0.628900602099283 -157.38661605005 0.667898285853874 167.423263591034 0.301427439448855 -28.9358744489045 
! Gamma         0                0                0                0                0                0                
! Port Impedance         50               0                50               0                50               0                
1.27                           0.388252603134016 48.7600783746679 0.636502282094122 -155.889499249734 0.629012796608547 -158.634130369125 
                               0.636502282094114 -155.889499249732 0.289843385778155 -26.1150661817306 0.666233666193275 165.771592633884 
                               0.629012796608548 -158.634130369126 0.666233666193263 165.771592633884 0.303797559045383 -31.3371136991242 
! Gamma         0                0                0                0                0                0                
! Port Impedance         50               0                50               0                50               0                
1.28                           0.386202799497854 47.2719007900552 0.637148536417666 -157.130883847633 0.62913364447443 -159.882444532523 
                               0.637148536417659 -157.130883847631 0.291228566192731 -28.5560607702248 0.664519219300538 164.121115946345 
                               0.629133644474431 -159.882444532523 0.664519219300526 164.121115946345 0.306249998140718 -33.7141925026351 
! Gamma         0                0                0                0                0                0                
! Port Impedance         50               0                50               0                50               0                
1.29                           0.384105532363296 45.777468458205  0.637804782465247 -158.374563523794 0.629263143582098 -161.131586900813 
                               0.637804782465241 -158.374563523792 0.29270132999053 -30.9785625068724 0.662756088220271 162.471966282661 
                               0.629263143582098 -161.131586900813 0.662756088220261 162.471966282661 0.308779909503893 -36.0663996726992 
! Gamma         0                0                0                0                0                0                
! Port Impedance         50               0                50               0                50               0                
1.3                            0.381961108365688 44.2767664687129 0.638470435608758 -159.620559443814 0.629401287371069 -162.381585976864 
                               0.638470435608752 -159.620559443812 0.294258450477078 -33.3814662566682 0.66094547785984 160.824273135765 
                               0.62940128737107 -162.381585976864 0.660945477859829 160.824273135764 0.311382363088916 -38.3931249928753 
! Gamma         0                0                0                0                0                0                
! Port Impedance         50               0                50               0                50               0                
1.31                           0.379769838802197 42.7697791684887 0.639144914143479 -160.868890970137 0.62954806478327 -163.632470401883 
                               0.639144914143474 -160.868890970136 0.295896523904787 -35.7637557211857 0.659088651349252 159.178162514402 
                               0.629548064783271 -163.632470401884 0.659088651349242 159.178162514401 0.314052373895751 -40.693855023041 
! Gamma         0                0                0                0                0                0                
! Port Impedance         50               0                50               0                50               0                
1.32                           0.377532039165411 41.2564901858458 0.63982763985627 -162.119575727468 0.629703460209047 -164.884268951526 
                               0.639827639856266 -162.119575727466 0.297611994127869 -38.1245041793539 0.657186926268828 157.533756732198 
                               0.629703460209047 -164.884268951526 0.657186926268819 157.533756732198 0.316784928341911 -42.9681683794926 
! Gamma         0                0                0                0                0                0                
! Port Impedance         50               0                50               0                50               0                
1.33                           0.375248028678251 39.7368824517984 0.64051803856039 -163.372629668822 0.629867453431068 -166.137010532087 
                               0.640518038560386 -163.372629668821 0.299401177137194 -40.4628743499776 0.655241670764795 155.891174209251 
                               0.629867453431068 -166.137010532087 0.655241670764787 155.891174209251 0.319575008992418 -45.2157306156251 
! Gamma         0                0                0                0                0                0                
! Port Impedance         50               0                50               0                50               0                
1.34                           0.372918129829687 38.2109382182921 0.641215540597688 -164.628067142088 0.630040019566035 -167.390724176769 
                               0.641215540597685 -164.628067142087 0.301260285204202 -42.7781174499972 0.653254299573172 154.250529286719 
                               0.630040019566035 -167.390724176769 0.653254299573164 154.250529286719 0.322417617538229 -47.4362888210788 
! Gamma         0                0                0                0                0                0                
! Port Impedance         50               0                50               0                50               0                
1.35                           0.370542667910788 36.678639073077  0.641919581308888 -165.885900956964 0.630221129004118 -168.645439042011 
                               0.641919581308885 -165.885900956963 0.303185450392686 -45.0695715310085 0.651226269972323 152.611932054823 
                               0.630221129004118 -168.645439042011 0.651226269972315 152.611932054823 0.325307795952119 -49.6296660468408 
! Gamma         0                0                0                0                0                0                
! Port Impedance         50               0                50               0                50               0                
1.36                           0.36812197055062 35.1399659509107 0.642629601472563 -167.146142452165 0.630410747346047 -169.901184403894 
                               0.642629601472561 -167.146142452164 0.305172747229058 -47.336659181992 0.649159077684436 150.975488194578 
                               0.630410747346048 -169.901184403894 0.64915907768443 150.975488194578 0.328240645785962 -51.7957556522534 
! Gamma         0                0                0                0                0                0                
! Port Impedance         50               0                50               0                50               0                
1.37                           0.365656367251531 33.5948991407586 0.64334504771341 -168.40880156278 0.630608835337774 -171.157989654594 
                               0.643345047713408 -168.40880156278 0.307218214354453 -49.5788846887614 0.647054252745874 149.341298833496 
                               0.630608835337775 -171.157989654594 0.647054252745868 149.341298833496 0.331211345604083 -53.9345156577701 
! Gamma         0                0                0                0                0                0                
! Port Impedance         50               0                50               0                50               0                
1.38                           0.363146188923392 32.0434182886318 0.644065372880305 -169.673886887691 0.630815348802636 -172.415884298899 
                               0.644065372880304 -169.67388688769 0.309317875014747 -51.7958307406347 0.644913355365868 147.709460415425 
                               0.630815348802637 -172.415884298899 0.644913355365863 147.709460415425 0.334215166573758 -56.045963175087 
! Gamma         0                0                0                0                0                0                
! Port Impedance         50               0                50               0                50               0                
1.39                           0.360591767416373 30.4855023956776 0.644790036394631 -170.941405756936 0.631030238570946 -173.674897950772 
                               0.644790036394629 -170.941405756936 0.311467756276414 -53.9871547726132 0.642737971792489 146.080064584609 
                               0.631030238570946 -173.674897950772 0.642737971792484 146.080064584609 0.337247486256084 -58.1301689743663 
! Gamma         0                0                0                0                0                0                
! Port Impedance         50               0                50               0                50               0                
1.4                            0.357993435051876 28.9211298111069 0.645518504569262 -172.211364298955 0.631253450406937 -174.935060329955 
                               0.645518504569261 -172.211364298954 0.313663906886329 -56.1525850273171 0.640529710204016 144.453198083976 
                               0.631253450406938 -174.935060329956 0.640529710204011 144.453198083976 0.340303800658545 -60.1872522369451 
! Gamma         0                0                0                0                0                0                
! Port Impedance         50               0                50               0                50               0                
1.41                           0.355351524151287 27.3502782195108 0.646250250898597 -173.483767507592 0.631484924932999 -176.196401258617 
                               0.646250250898596 -173.483767507591 0.315902413721738 -58.291916415469 0.638290196643069 142.82894266758  
                               0.631484924932999 -176.196401258617 0.638290196643065 142.82894266758  0.34337973462487 -62.2173755314231 
! Gamma         0                0                0                0                0                0                
! Port Impedance         50               0                50               0                50               0                
1.42                           0.352666366562238 25.7729246220795 0.646984756319939 -174.75861930881 0.631724597551114 -177.45895065802 
                               0.646984756319938 -174.758619308809 0.318179416802104 -60.4050062472077 0.636021071009855 141.20737502708  
                               0.631724597551115 -177.45895065802 0.636021071009852 141.20737502708  0.346471050648668 -64.22074004148  
! Gamma         0                0                0                0                0                0                
! Port Impedance         50               0                50               0                50               0                
1.43                           0.349938293182132 24.1890453112005 0.647721509446518 -176.035922627005 0.631972398361462 -178.722738545225 
                               0.647721509446517 -176.035922627005 0.320491122857306 -62.4917698993279 0.63372398312988 139.58856673204  
                               0.631972398361462 -178.722738545225 0.633723983129877 139.58856673204  0.349573656205044 -66.1975810652757 
! Gamma         0                0                0                0                0                0                
! Port Impedance         50               0                50               0                50               0                
1.44                           0.347167633478734 22.5986158378639 0.648460006772418 -177.315679450867 0.632228252078095 -179.987795029797 
                               0.648460006772417 -177.315679450867 0.322833817466509 -64.552176475971 0.631400588910358 137.972584183793 